<?xml version="1.0" encoding="UTF-8"?>

<!-- generated on Tue 09 Oct 2018 11:19:20 AM CEST by SUMO gui Version 0.32.0
<?xml version="1.0" encoding="UTF-8"?>

<configuration xmlns:xsi="http://www.w3.org/2001/XMLSchema-instance" xsi:noNamespaceSchemaLocation="http://sumo.dlr.de/xsd/sumoConfiguration.xsd">

    <input>
        <net-file value="data/nylandsvejGen.net.xml"/>
        <route-files value="data/FC_ALL.rou.xml"/>
        <additional-files value="data/nylandsvejLoops.det.xml"/>
    </input>

    <output>
        <tripinfo-output value="results/tripinfo1124.xml"/>
    </output>

    <time>
        <begin value="0"/>
    </time>

    <report>
        <verbose value="true"/>
        <no-step-log value="true"/>
    </report>

    <traci_server>
        <remote-port value="8873"/>
    </traci_server>

    <gui_only>
        <gui-settings-file value="data/nylandsvejPlain.set.xml"/>
    </gui_only>

</configuration>
-->

<tripinfos xmlns:xsi="http://www.w3.org/2001/XMLSchema-instance" xsi:noNamespaceSchemaLocation="http://sumo.dlr.de/xsd/tripinfo_file.xsd">
</tripinfos>
